TITLE = "015_TC1_S_01"
VARIABLES = "ALPHA" "N" "CL" "CD" "CM" "DT" "TSTART" "TAVG" "CLp" "CLv" "CDp" "CDv"

# Include one zone for each grid in the family that you are reporting (label them appropriately by
# changing, e.g., "NAMED GRID 1" to a description of the grid used (such as "GRID 2.R.02 R LEVEL")
# and include the word NOMINAL next to the result you feel is "best")

ZONE T="015 TC1, Structured Overset/Multiblock GRID 1"
 10.0 132160950 1.2500267182923168 0.1574282460684512 -0.11272716627834382 0.001 20.0 4.835799999995654019e+01 1.2499990743960332 2.764389628369058e-05 0.14857467000954167 0.008853576058909546
 15.0 132160950 1.5585053311460928 0.21541137354666162 -0.0844036777316443 0.001 20.0 4.676199999995249357e+01 1.5585851086794404 -7.977753334763512e-05 0.20630417172955098 0.009107201817110663
 20.0 132160950 1.869720715717221 0.29242970126155726 -0.07101501711284841 0.001 40.0 60.0 1.8699719888934865 -0.0002512731762653065 0.2830568999000271 0.009372801361530219
 25.0 132160950 2.1336591968833725 0.3742224299424716 -0.057345177278303086 0.001 40.0 60.0 2.134018637424034 -0.0003594405406616081 0.3649913192569675 0.009231110685504171
 30.0 132160950 2.3100534670038724 0.4486354481405021 -0.02896249491912667 0.001 40.0 60.0 2.3104760829072735 -0.0004226159034014363 0.4399745469055949 0.008660901234907254
 35.0 132160950 1.767957308097044 0.5740779538419521 0.09796244767204842 0.001 40.0 60.0 1.768905181559054 -0.0009478734620101809 0.5690789318127982 0.004999022029153865
