TITLE = "015_TC1_R_01"
VARIABLES = "ALPHA" "N" "CL" "CD" "CM" "DT" "TSTART" "TAVG" "CLp" "CLv" "CDp" "CDv"

# Include one zone for each grid in the family that you are reporting (label them appropriately by
# changing, e.g., "NAMED GRID 1" to a description of the grid used (such as "GRID 2.R.02 R LEVEL")
# and include the word NOMINAL next to the result you feel is "best")

ZONE T="015 TC1, Structured Overset/Multiblock GRID 1"
 10.0 132160950 1.2539901709809647 0.15937323003026074 -0.1125036003717105 0.005 40.0 60.0 1.2539677438777612 2.2427103203760137e-05 0.15048412505333428 0.008889104976926491
 15.0 132160950 1.5599144414811843 0.21683721770426925 -0.08197432665884176 0.005 40.0 60.0 1.559993581400357 -7.913991917277847e-05 0.20768981963433597 0.009147398069933286
 20.0 132160950 1.8643257167481504 0.29230811667877565 -0.06868022383662198 0.005 40.0 60.0 1.8645434423746934 -0.00021772562654278954 0.28297817241759615 0.009329944261179479
 25.0 132160950 2.1373178535271347 0.375791495271136 -0.05797520163147716 0.005 40.0 60.0 2.13765879749593 -0.0003409439687956824 0.3665352275549137 0.009256267716222372
 30.0 132160950 2.319339897353638 0.45132430445192967 -0.0330003859535896 0.005 40.0 60.0 2.319763287198351 -0.00042338984471282815 0.44264427159297703 0.008680032858952592
 35.0 132160950 1.6884524974847872 0.6039128191077243 0.0935109378552028 0.005 40.0 60.0 1.6899232142295868 -0.0014707167447996212 0.5984401815406482 0.005472637567076261
